<VTKFile type="UnstructuredGrid" version="1.0" byte_order="LittleEndian">
    <UnstructuredGrid>
        <FieldData>
            <DataArray Name="TimeValue" NumberOfTuples="1" type="Float64" format="ascii">
                0.0
            </DataArray>
        </FieldData>
        <Piece NumberOfPoints="7" NumberOfCells="3">
            <Points>
                <DataArray type="Float64" Name="nodes" NumberOfComponents="3" format="ascii">
                    0.0    0.0    0.0
                    1.0    0.0    0.0
                    2.0    0.0    0.0
                    0.0    1.0    0.0
                    1.0    1.0    0.0
                    2.0    1.0    0.0
                    0.5    1.5    0.0
                </DataArray>
            </Points>
            <Cells>
                <DataArray type="Int64" Name="connectivity" format="ascii">
                    0    1    4    3
                    1    2    5    4
                    3    4    6
                </DataArray>
                <DataArray type="Int64" Name="offsets" format="ascii">
                    4    8    11
                </DataArray>
                <DataArray type="UInt8" Name="types" format="ascii">
                    9    9    5
                </DataArray>
            </Cells>
            <PointData>
                <DataArray Name="_node_tags" NumberOfComponents="1" type="Int64" format="ascii">
                    1    2    3    4    5    6    7
                </DataArray>
            </PointData>
            <CellData>
                <DataArray Name="_element_tags" NumberOfComponents="1" type="Int64" format="ascii">
                    1    2    3
                </DataArray>
            </CellData>
        </Piece>
    </UnstructuredGrid>
</VTKFile>
