<VTKFile byte_order="LittleEndian" type="UnstructuredGrid" version="1.0">
    <UnstructuredGrid>
        <FieldData>
            <DataArray Name="TimeValue" NumberOfTuples="1" format="ascii" type="Float64">
                0.0
            </DataArray>
        </FieldData>
        <Piece NumberOfCells="2" NumberOfPoints="4">
            <Points>
                <DataArray Name="nodes" NumberOfComponents="3" format="ascii" type="Float64">
                    1.0    1.0    0.0
                    2.0    1.0    0.0
                    0.5    1.5    0.0
                    1.5    1.5    0.0
                </DataArray>
            </Points>
            <Cells>
                <DataArray Name="connectivity" format="ascii" type="Int64">
                    0    1    3
                    0    3    2
                </DataArray>
                <DataArray Name="offsets" format="ascii" type="Int64">
                    3    6
                </DataArray>
                <DataArray Name="types" format="ascii" type="UInt8">
                    5    5
                </DataArray>
            </Cells>
            <PointData>
                <DataArray Name="_node_tags" NumberOfComponents="1" format="ascii" type="Int64">
                    5    6    7    8
                </DataArray>
            </PointData>
            <CellData>
                <DataArray Name="_element_tags" NumberOfComponents="1" format="ascii" type="Int64">
                    4    5
                </DataArray>
            </CellData>
        </Piece>
    </UnstructuredGrid>
</VTKFile>
