<VTKFile byte_order="LittleEndian" type="UnstructuredGrid" version="1.0">
    <UnstructuredGrid>
        <FieldData>
            <DataArray Name="TimeValue" NumberOfTuples="1" format="ascii" type="Float64">
                0.0
            </DataArray>
        </FieldData>
        <Piece NumberOfCells="5" NumberOfPoints="8">
            <Points>
                <DataArray Name="nodes" NumberOfComponents="3" format="ascii" type="Float64">
                    0.0    0.0    0.0
                    1.0    0.0    0.0
                    2.0    0.0    0.0
                    0.0    1.0    0.0
                    1.0    1.0    0.0
                    2.0    1.0    0.0
                    0.5    1.5    0.0
                    1.5    1.5    0.0
                </DataArray>
            </Points>
            <Cells>
                <DataArray Name="connectivity" format="ascii" type="Int32">
                    0    1    4    3
                    1    2    5    4
                    3    4    6
                    4    5    7
                    4    7    6
                </DataArray>
                <DataArray Name="offsets" format="ascii" type="Int32">
                    4    8    11    14    17
                </DataArray>
                <DataArray Name="types" format="ascii" type="UInt8">
                    9    9    5    5    5
                </DataArray>
            </Cells>
            <PointData>
                <DataArray Name="_node_tags" NumberOfComponents="1" format="ascii" type="Int32">
                    1    2    3    4    5    6    7    8
                </DataArray>
            </PointData>
            <CellData>
                <DataArray Name="_element_tags" NumberOfComponents="1" format="ascii" type="Int32">
                    1    2    3    4    5
                </DataArray>
            </CellData>
        </Piece>
    </UnstructuredGrid>
</VTKFile>
